33
Lattice="5.02778205 0.0 3e-16 -2.5138910250000017 4.354186979991402 3e-16 0.0 0.0 33.113508" Properties=species:S:1:pos:R:3:forces:R:3 energy=-298.2333984375 free_energy=-298.2333984375 stress="0.0065732975490391254 -0.002123134210705757 -5.1096154493279755e-05 -0.002123134210705757 0.004437426570802927 -0.0010745504405349493 -5.1096154493279755e-05 -0.0010745504405349493 0.00023559936380479485" pbc="T T T"
Si       2.43373506       0.06962920       8.91256842       0.01145582      -0.01311663       0.01557496
Si       1.23172302       2.26469196      10.72867243      -0.00735591      -0.00660061      -0.00547501
Si      -1.26441167       1.93311655      12.52399613      -0.00707552       0.00209435       0.00415097
O        1.53973495       1.28583924       9.48604044      -0.00074060       0.00188932       0.00793597
O        2.59585254       2.49568241      11.55598595       0.00993036      -0.01381089      -0.02725575
O        3.32444706       0.53841611      13.20749627      -0.00797101      -0.00357383       0.00275435
O       -1.01608803       3.04789798      13.66445960      -0.00981928       0.01673497       0.00786655
O        0.09612128       1.64422385      11.69941152      -0.00834842      -0.00953579      -0.00823465
O        0.66587724       3.64810762      10.12591977      -0.00864783      -0.00934547      -0.00754480
Si       2.41091537      -0.16525562      14.34141697       0.00160220       0.00544275       0.01041160
Si       1.30971570       2.10887956      16.14387766       0.00390476      -0.00180687       0.00165695
Si      -1.20950338       1.84681382      17.94741004       0.01243838       0.01126157      -0.00589953
O        1.46760479       0.95840180      15.01655489       0.00855291      -0.00403669       0.01850571
O        2.73101024       2.36533623      16.86786162      -0.00492594      -0.03325150       0.00492477
O        3.30517231       0.46658207      18.60822333       0.01055372       0.01005577       0.00918464
O       -1.02677311       2.96167790      19.10227279      -0.01685615       0.00642843       0.00970770
O        0.21548330       1.61230765      17.22658142      -0.00698729      -0.01039737      -0.02927563
O        0.83612319       3.49819276      15.46487014       0.00867862      -0.00984935      -0.00533813
Si       2.45636308      -0.28543022      19.76201664      -0.00358078       0.01234630       0.00797536
Si       1.46227284       2.02596821      21.55528624       0.00661482       0.00434008      -0.00280171
Si      -1.04711803       1.92282961      23.37722004       0.00625243       0.00843851       0.00094607
O        1.50528575       0.76898632      20.53612087      -0.02385552      -0.00367847       0.00742923
O        2.94313057       2.19867261      22.16541348       0.00316942       0.02235653      -0.00002904
O        3.60617473       0.49988844      24.09703618      -0.02079827       0.01129743       0.01698798
O       -1.17702477       3.15481824      24.42067612       0.03320377       0.01980408       0.01241957
O        0.44846547       1.75934643      22.77929736      -0.01261884       0.00924154      -0.02157497
O        0.98804485       3.35888598      20.77463891      -0.00581604      -0.00283192      -0.00238185
O        1.34135712      -0.81531162       8.11251228      -0.01414001       0.02965881       0.00067829
H        1.41672345      -1.77215005       7.93828413       0.01956810      -0.02070571       0.01721342
O        3.60941106       0.72750178       7.98447857      -0.02543645      -0.01077926      -0.00584357
H        4.43169063       0.21239644       7.91277613       0.03383371      -0.00530611      -0.00440672
H        4.37970436      -0.01292446      24.39078703      -0.00029667      -0.00114555      -0.01911637
H       -0.45261320       3.80844213      24.42266996       0.01551182      -0.01161812      -0.01114719
